
Predictions were generated on 30-Aug-2023 at 12:55:30 using OpenFAST, compiled as a 64-bit application using double precision at commit v3.5.0
 linked with  NWTC Subroutine Library; ElastoDyn

Description from the FAST input file: IEA 15 MW offshore reference model monopile configuration

Time	PtfmTAxt	PtfmTAyt	PtfmTAzt	PtfmRAxt	PtfmRAyt	PtfmRAzt
(s)	(m/s^2)	(m/s^2)	(m/s^2)	(deg/s^2)	(deg/s^2)	(deg/s^2)
    0.0000	 0.000000000E+00	-0.000000000E+00	 0.000000000E+00	 0.000000000E+00	-0.000000000E+00	 0.000000000E+00
