
Linearized model: Predictions were generated on 30-Aug-2023 at 12:55:30 using OpenFAST, compiled as a 64-bit application using double precision at commit v3.5.0
 linked with  NWTC Subroutine Library; ElastoDyn

Description from the FAST input file: IEA 15 MW offshore reference model monopile configuration

Simulation information:
   Simulation time:                     0.0000 s
   Rotor Speed:                         0.0000 rad/s
   Azimuth:                             0.0000 rad
   Wind Speed:                          0.0000 m/s
   Number of continuous states:        12
   Number of discrete states:           0
   Number of constraint states:         0
   Number of inputs:                 1044
   Number of outputs:                   6
   Jacobians included in this file?    No

Order of continuous states:
   Row/Column Operating Point                                       Rotating Frame? Derivative Order Description
   ---------- ---------------                                       --------------- ---------------- -----------
          1    0.000000000E+00                                             F               2         ED Platform horizontal surge translation DOF (internal DOF index = DOF_Sg), m
          2    0.000000000E+00                                             F               2         ED Platform horizontal sway translation DOF (internal DOF index = DOF_Sw), m
          3    0.000000000E+00                                             F               2         ED Platform vertical heave translation DOF (internal DOF index = DOF_Hv), m
          4    0.000000000E+00                                             F               2         ED Platform roll tilt rotation DOF (internal DOF index = DOF_R), rad
          5    0.000000000E+00                                             F               2         ED Platform pitch tilt rotation DOF (internal DOF index = DOF_P), rad
          6    0.000000000E+00                                             F               2         ED Platform yaw rotation DOF (internal DOF index = DOF_Y), rad
          7    0.000000000E+00                                             F               2         ED First time derivative of Platform horizontal surge translation DOF (internal DOF index = DOF_Sg), m/s
          8    0.000000000E+00                                             F               2         ED First time derivative of Platform horizontal sway translation DOF (internal DOF index = DOF_Sw), m/s
          9    0.000000000E+00                                             F               2         ED First time derivative of Platform vertical heave translation DOF (internal DOF index = DOF_Hv), m/s
         10    0.000000000E+00                                             F               2         ED First time derivative of Platform roll tilt rotation DOF (internal DOF index = DOF_R), rad/s
         11    0.000000000E+00                                             F               2         ED First time derivative of Platform pitch tilt rotation DOF (internal DOF index = DOF_P), rad/s
         12    0.000000000E+00                                             F               2         ED First time derivative of Platform yaw rotation DOF (internal DOF index = DOF_Y), rad/s

Order of continuous state derivatives:
   Row/Column Operating Point                                       Rotating Frame? Derivative Order Description
   ---------- ---------------                                       --------------- ---------------- -----------
          1    0.000000000E+00                                             F               2         First time derivative of ED Platform horizontal surge translation DOF (internal DOF index = DOF_Sg), m/s
          2    0.000000000E+00                                             F               2         First time derivative of ED Platform horizontal sway translation DOF (internal DOF index = DOF_Sw), m/s
          3    0.000000000E+00                                             F               2         First time derivative of ED Platform vertical heave translation DOF (internal DOF index = DOF_Hv), m/s
          4    0.000000000E+00                                             F               2         First time derivative of ED Platform roll tilt rotation DOF (internal DOF index = DOF_R), rad/s
          5    0.000000000E+00                                             F               2         First time derivative of ED Platform pitch tilt rotation DOF (internal DOF index = DOF_P), rad/s
          6    0.000000000E+00                                             F               2         First time derivative of ED Platform yaw rotation DOF (internal DOF index = DOF_Y), rad/s
          7    0.000000000E+00                                             F               2         First time derivative of ED First time derivative of Platform horizontal surge translation DOF (internal DOF index = DOF_Sg), m/s/s
          8   -0.000000000E+00                                             F               2         First time derivative of ED First time derivative of Platform horizontal sway translation DOF (internal DOF index = DOF_Sw), m/s/s
          9    0.000000000E+00                                             F               2         First time derivative of ED First time derivative of Platform vertical heave translation DOF (internal DOF index = DOF_Hv), m/s/s
         10   -0.000000000E+00                                             F               2         First time derivative of ED First time derivative of Platform roll tilt rotation DOF (internal DOF index = DOF_R), rad/s/s
         11   -0.000000000E+00                                             F               2         First time derivative of ED First time derivative of Platform pitch tilt rotation DOF (internal DOF index = DOF_P), rad/s/s
         12    0.000000000E+00                                             F               2         First time derivative of ED First time derivative of Platform yaw rotation DOF (internal DOF index = DOF_Y), rad/s/s

Order of inputs:
     Column   Operating Point                                       Rotating Frame? Derivative Order Description
   ---------- ---------------                                       --------------- ---------------- -----------
          1    0.000000000E+00                                             F               0         ED Blade 1 X force, node 1, N
          2    0.000000000E+00                                             F               0         ED Blade 1 Y force, node 1, N
          3    0.000000000E+00                                             F               0         ED Blade 1 Z force, node 1, N
          4    0.000000000E+00                                             F               0         ED Blade 1 X force, node 2, N
          5    0.000000000E+00                                             F               0         ED Blade 1 Y force, node 2, N
          6    0.000000000E+00                                             F               0         ED Blade 1 Z force, node 2, N
          7    0.000000000E+00                                             F               0         ED Blade 1 X force, node 3, N
          8    0.000000000E+00                                             F               0         ED Blade 1 Y force, node 3, N
          9    0.000000000E+00                                             F               0         ED Blade 1 Z force, node 3, N
         10    0.000000000E+00                                             F               0         ED Blade 1 X force, node 4, N
         11    0.000000000E+00                                             F               0         ED Blade 1 Y force, node 4, N
         12    0.000000000E+00                                             F               0         ED Blade 1 Z force, node 4, N
         13    0.000000000E+00                                             F               0         ED Blade 1 X force, node 5, N
         14    0.000000000E+00                                             F               0         ED Blade 1 Y force, node 5, N
         15    0.000000000E+00                                             F               0         ED Blade 1 Z force, node 5, N
         16    0.000000000E+00                                             F               0         ED Blade 1 X force, node 6, N
         17    0.000000000E+00                                             F               0         ED Blade 1 Y force, node 6, N
         18    0.000000000E+00                                             F               0         ED Blade 1 Z force, node 6, N
         19    0.000000000E+00                                             F               0         ED Blade 1 X force, node 7, N
         20    0.000000000E+00                                             F               0         ED Blade 1 Y force, node 7, N
         21    0.000000000E+00                                             F               0         ED Blade 1 Z force, node 7, N
         22    0.000000000E+00                                             F               0         ED Blade 1 X force, node 8, N
         23    0.000000000E+00                                             F               0         ED Blade 1 Y force, node 8, N
         24    0.000000000E+00                                             F               0         ED Blade 1 Z force, node 8, N
         25    0.000000000E+00                                             F               0         ED Blade 1 X force, node 9, N
         26    0.000000000E+00                                             F               0         ED Blade 1 Y force, node 9, N
         27    0.000000000E+00                                             F               0         ED Blade 1 Z force, node 9, N
         28    0.000000000E+00                                             F               0         ED Blade 1 X force, node 10, N
         29    0.000000000E+00                                             F               0         ED Blade 1 Y force, node 10, N
         30    0.000000000E+00                                             F               0         ED Blade 1 Z force, node 10, N
         31    0.000000000E+00                                             F               0         ED Blade 1 X force, node 11, N
         32    0.000000000E+00                                             F               0         ED Blade 1 Y force, node 11, N
         33    0.000000000E+00                                             F               0         ED Blade 1 Z force, node 11, N
         34    0.000000000E+00                                             F               0         ED Blade 1 X force, node 12, N
         35    0.000000000E+00                                             F               0         ED Blade 1 Y force, node 12, N
         36    0.000000000E+00                                             F               0         ED Blade 1 Z force, node 12, N
         37    0.000000000E+00                                             F               0         ED Blade 1 X force, node 13, N
         38    0.000000000E+00                                             F               0         ED Blade 1 Y force, node 13, N
         39    0.000000000E+00                                             F               0         ED Blade 1 Z force, node 13, N
         40    0.000000000E+00                                             F               0         ED Blade 1 X force, node 14, N
         41    0.000000000E+00                                             F               0         ED Blade 1 Y force, node 14, N
         42    0.000000000E+00                                             F               0         ED Blade 1 Z force, node 14, N
         43    0.000000000E+00                                             F               0         ED Blade 1 X force, node 15, N
         44    0.000000000E+00                                             F               0         ED Blade 1 Y force, node 15, N
         45    0.000000000E+00                                             F               0         ED Blade 1 Z force, node 15, N
         46    0.000000000E+00                                             F               0         ED Blade 1 X force, node 16, N
         47    0.000000000E+00                                             F               0         ED Blade 1 Y force, node 16, N
         48    0.000000000E+00                                             F               0         ED Blade 1 Z force, node 16, N
         49    0.000000000E+00                                             F               0         ED Blade 1 X force, node 17, N
         50    0.000000000E+00                                             F               0         ED Blade 1 Y force, node 17, N
         51    0.000000000E+00                                             F               0         ED Blade 1 Z force, node 17, N
         52    0.000000000E+00                                             F               0         ED Blade 1 X force, node 18, N
         53    0.000000000E+00                                             F               0         ED Blade 1 Y force, node 18, N
         54    0.000000000E+00                                             F               0         ED Blade 1 Z force, node 18, N
         55    0.000000000E+00                                             F               0         ED Blade 1 X force, node 19, N
         56    0.000000000E+00                                             F               0         ED Blade 1 Y force, node 19, N
         57    0.000000000E+00                                             F               0         ED Blade 1 Z force, node 19, N
         58    0.000000000E+00                                             F               0         ED Blade 1 X force, node 20, N
         59    0.000000000E+00                                             F               0         ED Blade 1 Y force, node 20, N
         60    0.000000000E+00                                             F               0         ED Blade 1 Z force, node 20, N
         61    0.000000000E+00                                             F               0         ED Blade 1 X force, node 21, N
         62    0.000000000E+00                                             F               0         ED Blade 1 Y force, node 21, N
         63    0.000000000E+00                                             F               0         ED Blade 1 Z force, node 21, N
         64    0.000000000E+00                                             F               0         ED Blade 1 X force, node 22, N
         65    0.000000000E+00                                             F               0         ED Blade 1 Y force, node 22, N
         66    0.000000000E+00                                             F               0         ED Blade 1 Z force, node 22, N
         67    0.000000000E+00                                             F               0         ED Blade 1 X force, node 23, N
         68    0.000000000E+00                                             F               0         ED Blade 1 Y force, node 23, N
         69    0.000000000E+00                                             F               0         ED Blade 1 Z force, node 23, N
         70    0.000000000E+00                                             F               0         ED Blade 1 X force, node 24, N
         71    0.000000000E+00                                             F               0         ED Blade 1 Y force, node 24, N
         72    0.000000000E+00                                             F               0         ED Blade 1 Z force, node 24, N
         73    0.000000000E+00                                             F               0         ED Blade 1 X force, node 25, N
         74    0.000000000E+00                                             F               0         ED Blade 1 Y force, node 25, N
         75    0.000000000E+00                                             F               0         ED Blade 1 Z force, node 25, N
         76    0.000000000E+00                                             F               0         ED Blade 1 X force, node 26, N
         77    0.000000000E+00                                             F               0         ED Blade 1 Y force, node 26, N
         78    0.000000000E+00                                             F               0         ED Blade 1 Z force, node 26, N
         79    0.000000000E+00                                             F               0         ED Blade 1 X force, node 27, N
         80    0.000000000E+00                                             F               0         ED Blade 1 Y force, node 27, N
         81    0.000000000E+00                                             F               0         ED Blade 1 Z force, node 27, N
         82    0.000000000E+00                                             F               0         ED Blade 1 X force, node 28, N
         83    0.000000000E+00                                             F               0         ED Blade 1 Y force, node 28, N
         84    0.000000000E+00                                             F               0         ED Blade 1 Z force, node 28, N
         85    0.000000000E+00                                             F               0         ED Blade 1 X force, node 29, N
         86    0.000000000E+00                                             F               0         ED Blade 1 Y force, node 29, N
         87    0.000000000E+00                                             F               0         ED Blade 1 Z force, node 29, N
         88    0.000000000E+00                                             F               0         ED Blade 1 X force, node 30, N
         89    0.000000000E+00                                             F               0         ED Blade 1 Y force, node 30, N
         90    0.000000000E+00                                             F               0         ED Blade 1 Z force, node 30, N
         91    0.000000000E+00                                             F               0         ED Blade 1 X force, node 31, N
         92    0.000000000E+00                                             F               0         ED Blade 1 Y force, node 31, N
         93    0.000000000E+00                                             F               0         ED Blade 1 Z force, node 31, N
         94    0.000000000E+00                                             F               0         ED Blade 1 X force, node 32, N
         95    0.000000000E+00                                             F               0         ED Blade 1 Y force, node 32, N
         96    0.000000000E+00                                             F               0         ED Blade 1 Z force, node 32, N
         97    0.000000000E+00                                             F               0         ED Blade 1 X force, node 33, N
         98    0.000000000E+00                                             F               0         ED Blade 1 Y force, node 33, N
         99    0.000000000E+00                                             F               0         ED Blade 1 Z force, node 33, N
        100    0.000000000E+00                                             F               0         ED Blade 1 X force, node 34, N
        101    0.000000000E+00                                             F               0         ED Blade 1 Y force, node 34, N
        102    0.000000000E+00                                             F               0         ED Blade 1 Z force, node 34, N
        103    0.000000000E+00                                             F               0         ED Blade 1 X force, node 35, N
        104    0.000000000E+00                                             F               0         ED Blade 1 Y force, node 35, N
        105    0.000000000E+00                                             F               0         ED Blade 1 Z force, node 35, N
        106    0.000000000E+00                                             F               0         ED Blade 1 X force, node 36, N
        107    0.000000000E+00                                             F               0         ED Blade 1 Y force, node 36, N
        108    0.000000000E+00                                             F               0         ED Blade 1 Z force, node 36, N
        109    0.000000000E+00                                             F               0         ED Blade 1 X force, node 37, N
        110    0.000000000E+00                                             F               0         ED Blade 1 Y force, node 37, N
        111    0.000000000E+00                                             F               0         ED Blade 1 Z force, node 37, N
        112    0.000000000E+00                                             F               0         ED Blade 1 X force, node 38, N
        113    0.000000000E+00                                             F               0         ED Blade 1 Y force, node 38, N
        114    0.000000000E+00                                             F               0         ED Blade 1 Z force, node 38, N
        115    0.000000000E+00                                             F               0         ED Blade 1 X force, node 39, N
        116    0.000000000E+00                                             F               0         ED Blade 1 Y force, node 39, N
        117    0.000000000E+00                                             F               0         ED Blade 1 Z force, node 39, N
        118    0.000000000E+00                                             F               0         ED Blade 1 X force, node 40, N
        119    0.000000000E+00                                             F               0         ED Blade 1 Y force, node 40, N
        120    0.000000000E+00                                             F               0         ED Blade 1 Z force, node 40, N
        121    0.000000000E+00                                             F               0         ED Blade 1 X force, node 41, N
        122    0.000000000E+00                                             F               0         ED Blade 1 Y force, node 41, N
        123    0.000000000E+00                                             F               0         ED Blade 1 Z force, node 41, N
        124    0.000000000E+00                                             F               0         ED Blade 1 X force, node 42, N
        125    0.000000000E+00                                             F               0         ED Blade 1 Y force, node 42, N
        126    0.000000000E+00                                             F               0         ED Blade 1 Z force, node 42, N
        127    0.000000000E+00                                             F               0         ED Blade 1 X force, node 43, N
        128    0.000000000E+00                                             F               0         ED Blade 1 Y force, node 43, N
        129    0.000000000E+00                                             F               0         ED Blade 1 Z force, node 43, N
        130    0.000000000E+00                                             F               0         ED Blade 1 X force, node 44, N
        131    0.000000000E+00                                             F               0         ED Blade 1 Y force, node 44, N
        132    0.000000000E+00                                             F               0         ED Blade 1 Z force, node 44, N
        133    0.000000000E+00                                             F               0         ED Blade 1 X force, node 45, N
        134    0.000000000E+00                                             F               0         ED Blade 1 Y force, node 45, N
        135    0.000000000E+00                                             F               0         ED Blade 1 Z force, node 45, N
        136    0.000000000E+00                                             F               0         ED Blade 1 X force, node 46, N
        137    0.000000000E+00                                             F               0         ED Blade 1 Y force, node 46, N
        138    0.000000000E+00                                             F               0         ED Blade 1 Z force, node 46, N
        139    0.000000000E+00                                             F               0         ED Blade 1 X force, node 47, N
        140    0.000000000E+00                                             F               0         ED Blade 1 Y force, node 47, N
        141    0.000000000E+00                                             F               0         ED Blade 1 Z force, node 47, N
        142    0.000000000E+00                                             F               0         ED Blade 1 X force, node 48, N
        143    0.000000000E+00                                             F               0         ED Blade 1 Y force, node 48, N
        144    0.000000000E+00                                             F               0         ED Blade 1 Z force, node 48, N
        145    0.000000000E+00                                             F               0         ED Blade 1 X force, node 49, N
        146    0.000000000E+00                                             F               0         ED Blade 1 Y force, node 49, N
        147    0.000000000E+00                                             F               0         ED Blade 1 Z force, node 49, N
        148    0.000000000E+00                                             F               0         ED Blade 1 X force, node 50, N
        149    0.000000000E+00                                             F               0         ED Blade 1 Y force, node 50, N
        150    0.000000000E+00                                             F               0         ED Blade 1 Z force, node 50, N
        151    0.000000000E+00                                             F               0         ED Blade 1 X moment, node 1, Nm
        152    0.000000000E+00                                             F               0         ED Blade 1 Y moment, node 1, Nm
        153    0.000000000E+00                                             F               0         ED Blade 1 Z moment, node 1, Nm
        154    0.000000000E+00                                             F               0         ED Blade 1 X moment, node 2, Nm
        155    0.000000000E+00                                             F               0         ED Blade 1 Y moment, node 2, Nm
        156    0.000000000E+00                                             F               0         ED Blade 1 Z moment, node 2, Nm
        157    0.000000000E+00                                             F               0         ED Blade 1 X moment, node 3, Nm
        158    0.000000000E+00                                             F               0         ED Blade 1 Y moment, node 3, Nm
        159    0.000000000E+00                                             F               0         ED Blade 1 Z moment, node 3, Nm
        160    0.000000000E+00                                             F               0         ED Blade 1 X moment, node 4, Nm
        161    0.000000000E+00                                             F               0         ED Blade 1 Y moment, node 4, Nm
        162    0.000000000E+00                                             F               0         ED Blade 1 Z moment, node 4, Nm
        163    0.000000000E+00                                             F               0         ED Blade 1 X moment, node 5, Nm
        164    0.000000000E+00                                             F               0         ED Blade 1 Y moment, node 5, Nm
        165    0.000000000E+00                                             F               0         ED Blade 1 Z moment, node 5, Nm
        166    0.000000000E+00                                             F               0         ED Blade 1 X moment, node 6, Nm
        167    0.000000000E+00                                             F               0         ED Blade 1 Y moment, node 6, Nm
        168    0.000000000E+00                                             F               0         ED Blade 1 Z moment, node 6, Nm
        169    0.000000000E+00                                             F               0         ED Blade 1 X moment, node 7, Nm
        170    0.000000000E+00                                             F               0         ED Blade 1 Y moment, node 7, Nm
        171    0.000000000E+00                                             F               0         ED Blade 1 Z moment, node 7, Nm
        172    0.000000000E+00                                             F               0         ED Blade 1 X moment, node 8, Nm
        173    0.000000000E+00                                             F               0         ED Blade 1 Y moment, node 8, Nm
        174    0.000000000E+00                                             F               0         ED Blade 1 Z moment, node 8, Nm
        175    0.000000000E+00                                             F               0         ED Blade 1 X moment, node 9, Nm
        176    0.000000000E+00                                             F               0         ED Blade 1 Y moment, node 9, Nm
        177    0.000000000E+00                                             F               0         ED Blade 1 Z moment, node 9, Nm
        178    0.000000000E+00                                             F               0         ED Blade 1 X moment, node 10, Nm
        179    0.000000000E+00                                             F               0         ED Blade 1 Y moment, node 10, Nm